<?xml version="1.0"?>
<VTKFile type="UnstructuredGrid" version="0.1" byte_order="LittleEndian">
 <UnstructuredGrid>
  <Piece NumberOfPoints="16" NumberOfCells="18">
   <Points>
    <DataArray type="Float64" NumberOfComponents="3" format="ascii">
0.5 0 0
0.5 0 1
0.5 1 0
0.5 1 1
0.5 0.508696 0
0.5 1 0.483138
0.5 0.477383 1
0.5 0 0.501602
0 0 0
0 0 1
0 1 0
0 1 1
0 1 0.502291
0 0.491304 0
0 0 0.502291
0 0.533725 1

    </DataArray>
   </Points> 
   <PointData>
    <DataArray type="Float64" Name="data_double" NumberOfComponents="1" format="ascii">
0.5 0.5 0.5 0.5 0.5 0.5 0.5 0.5 0 0 0 0 0 0 0 0 
    </DataArray>
   </PointData>
   <Cells> 
    <DataArray type="Int32" Name="connectivity" format="ascii">
14 7 1 6 
6 12 7 5 
4 5 10 2 
14 9 15 6 
12 4 7 5 
6 12 14 7 
7 13 8 0 
14 1 9 6 
11 15 3 12 
6 12 15 14 
7 13 14 8 
13 7 14 12 
12 4 5 10 
6 12 5 3 
13 7 4 0 
12 4 10 13 
12 4 13 7 
6 12 3 15 

    </DataArray>
    <DataArray type="Int32" Name="offsets" format="ascii">
4 8 12 16 20 24 28 32 36 40 44 48 52 56 60 64 68 72 
    </DataArray>
    <DataArray type="UInt8" Name="types" format="ascii">
10 10 10 10 10 10 10 10 10 10 10 10 10 10 10 10 10 10 
    </DataArray>
   </Cells>
   <CellData>
    <DataArray type="Float64" Name="data_double" NumberOfComponents="1" format="ascii">
0.250343 0.250293 0.25 0.223103 0.250282 0.249998 0.25 0.25 0.25 0.249374 0.249654 0.249997 0.240746 0.259533 0.258545 0.241455 0.25 0.276271 
    </DataArray>
   </CellData>
  </Piece>
 </UnstructuredGrid>
</VTKFile>
